 Entering Gaussian System, Link 0=g09
 Input=6.com
 Output=6.log
 Initial command:
 /home/scicons/Gaussian09.D01/l1.exe "/tmp/tmp.AyXrGYM2Kn/Gau-227438.inp" -scrdir="/tmp/tmp.AyXrGYM2Kn/"
 Entering Link 1 = /home/scicons/Gaussian09.D01/l1.exe PID=    227439.
  
 Copyright (c) 1988,1990,1992,1993,1995,1998,2003,2009,2013,
            Gaussian, Inc.  All Rights Reserved.
  
 This is part of the Gaussian(R) 09 program.  It is based on
 the Gaussian(R) 03 system (copyright 2003, Gaussian, Inc.),
 the Gaussian(R) 98 system (copyright 1998, Gaussian, Inc.),
 the Gaussian(R) 94 system (copyright 1995, Gaussian, Inc.),
 the Gaussian 92(TM) system (copyright 1992, Gaussian, Inc.),
 the Gaussian 90(TM) system (copyright 1990, Gaussian, Inc.),
 the Gaussian 88(TM) system (copyright 1988, Gaussian, Inc.),
 the Gaussian 86(TM) system (copyright 1986, Carnegie Mellon
 University), and the Gaussian 82(TM) system (copyright 1983,
 Carnegie Mellon University). Gaussian is a federally registered
 trademark of Gaussian, Inc.
  
 This software contains proprietary and confidential information,
 including trade secrets, belonging to Gaussian, Inc.
  
 This software is provided under written license and may be
 used, copied, transmitted, or stored only in accord with that
 written license.
  
 The following legend is applicable only to US Government
 contracts under FAR:
  
                    RESTRICTED RIGHTS LEGEND
  
 Use, reproduction and disclosure by the US Government is
 subject to restrictions as set forth in subparagraphs (a)
 and (c) of the Commercial Computer Software - Restricted
 Rights clause in FAR 52.227-19.
  
 Gaussian, Inc.
 340 Quinnipiac St., Bldg. 40, Wallingford CT 06492
  
  
 ---------------------------------------------------------------
 Warning -- This program may not be used in any manner that
 competes with the business of Gaussian, Inc. or will provide
 assistance to any competitor of Gaussian, Inc.  The licensee
 of this program is prohibited from giving any competitor of
 Gaussian, Inc. access to this program.  By using this program,
 the user acknowledges that Gaussian, Inc. is engaged in the
 business of creating and licensing software in the field of
 computational chemistry and represents and warrants to the
 licensee that it is not a competitor of Gaussian, Inc. and that
 it will not use this program in any manner prohibited above.
 ---------------------------------------------------------------
  

 Cite this work as:
 Gaussian 09, Revision D.01,
 M. J. Frisch, G. W. Trucks, H. B. Schlegel, G. E. Scuseria, 
 M. A. Robb, J. R. Cheeseman, G. Scalmani, V. Barone, B. Mennucci, 
 G. A. Petersson, H. Nakatsuji, M. Caricato, X. Li, H. P. Hratchian, 
 A. F. Izmaylov, J. Bloino, G. Zheng, J. L. Sonnenberg, M. Hada, 
 M. Ehara, K. Toyota, R. Fukuda, J. Hasegawa, M. Ishida, T. Nakajima, 
 Y. Honda, O. Kitao, H. Nakai, T. Vreven, J. A. Montgomery, Jr., 
 J. E. Peralta, F. Ogliaro, M. Bearpark, J. J. Heyd, E. Brothers, 
 K. N. Kudin, V. N. Staroverov, T. Keith, R. Kobayashi, J. Normand, 
 K. Raghavachari, A. Rendell, J. C. Burant, S. S. Iyengar, J. Tomasi, 
 M. Cossi, N. Rega, J. M. Millam, M. Klene, J. E. Knox, J. B. Cross, 
 V. Bakken, C. Adamo, J. Jaramillo, R. Gomperts, R. E. Stratmann, 
 O. Yazyev, A. J. Austin, R. Cammi, C. Pomelli, J. W. Ochterski, 
 R. L. Martin, K. Morokuma, V. G. Zakrzewski, G. A. Voth, 
 P. Salvador, J. J. Dannenberg, S. Dapprich, A. D. Daniels, 
 O. Farkas, J. B. Foresman, J. V. Ortiz, J. Cioslowski, 
 and D. J. Fox, Gaussian, Inc., Wallingford CT, 2013.
 
 ******************************************
 Gaussian 09:  ES64L-G09RevD.01 24-Apr-2013
                27-Aug-2018 
 ******************************************
 %nproc=24
 Will use up to   24 processors via shared memory.
 %mem=95834356KB
 %chk=6.chk
 ------------------------------------------------------------
 #p geom=connectivity pop=always b3lyp/genecp td=(nstates=30)
 ------------------------------------------------------------
 1/38=1,57=2/1;
 2/12=2,17=6,18=5,40=1/2;
 3/5=7,11=9,16=1,17=8,25=1,30=1,74=-5/1,2,8,3;
 4//1;
 5/5=2,38=5/2;
 8/6=1,10=1,108=30/1;
 9/41=30,42=1,70=2/14;
 6/7=2,8=2,9=2,10=2/1;
 99/5=1,9=1/99;
 Leave Link    1 at Mon Aug 27 21:32:51 2018, MaxMem= 12266797568 cpu:         2.3
 (Enter /home/scicons/Gaussian09.D01/l101.exe)
 ----------------------
 Generated by Christina
 ----------------------
 Symbolic Z-matrix:
 Charge =  2 Multiplicity = 1
 Au                   0     15.88     3.83      13.18 
 Au                   0     17.97     5.61      12.69 
 Au                   0     19.69     5.55      10.31 
 Au                   0     18.86     7.79      8.16 
 Au                   0     19.02     4.91      7.49 
 Au                   0     16.57     2.83      7.81 
 N                    0     18.13     6.09      9.02 
 C                    0     17.52     3.73      11.81 
 C                    0     16.73     6.04      9.24 
 C                    0     15.85     7.03      8.79 
 H                    0     16.2      7.76      8.34 
 C                    0     14.52     6.97      8.99 
 H                    0     13.98     7.64      8.65 
 C                    0     13.93     5.9       9.7 
 H                    0     13.01     5.85      9.82 
 C                    0     14.78     4.94      10.2 
 H                    0     14.41     4.24      10.69 
 C                    0     16.15     4.96      10. 
 C                    0     17.       3.87      10.53 
 N                    0     17.38     2.87      9.71 
 C                    0     18.3      2.5       11.75 
 C                    0     19.05     1.78      12.66 
 H                    0     19.17     2.1       13.53 
 C                    0     19.61     0.58      12.26 
 H                    0     20.09     0.07      12.87 
 C                    0     19.47     0.1       10.95 
 H                    0     19.87    -0.7       10.71 
 C                    0     18.76     0.83      10.02 
 H                    0     18.68     0.53      9.14 
 C                    0     18.16     2.        10.43 
 P                    0     13.96     3.74      14.36 
 C                    0     13.31     5.34      14.9 
 C                    0     13.13     5.66      16.26 
 H                    0     13.29     5.02      16.92 
 C                    0     12.71     6.91      16.61 
 H                    0     12.61     7.13      17.51 
 C                    0     12.43     7.87      15.67 
 H                    0     12.11     8.7       15.94 
 C                    0     12.61     7.6       14.33 
 H                    0     12.44     8.25      13.69 
 C                    0     13.05     6.34      13.94 
 H                    0     13.17     6.16      13.03 
 C                    0     12.65     3.        13.33 
 C                    0     11.3      3.31      13.47 
 H                    0     11.04     3.96      14.07 
 C                    0     10.36     2.64      12.7 
 H                    0     9.45      2.82      12.82 
 C                    0     10.73     1.72      11.79 
 H                    0     10.1      1.31      11.26 
 C                    0     12.06     1.41      11.63 
 H                    0     12.31     0.76      11.01 
 C                    0     13.04     2.03      12.39 
 H                    0     13.93     1.82      12.27 
 C                    0     14.08     2.72      15.83 
 C                    0     13.01     1.95      16.31 
 H                    0     12.17     2.01      15.9 
 C                    0     13.19     1.12      17.39 
 H                    0     12.48     0.59      17.68 
 C                    0     14.41     1.06      18.05 
 H                    0     14.52     0.5       18.79 
 C                    0     15.42     1.82      17.63 
 H                    0     16.24     1.79      18.07 
 C                    0     15.29     2.66      16.52 
 H                    0     16.01     3.18      16.25 
 P                    0     17.97     7.66      13.66 
 C                    0     16.92     8.82      12.73 
 C                    0     15.69     8.36      12.21 
 H                    0     15.45     7.47      12.31 
 C                    0     14.87     9.23      11.54 
 H                    0     14.05     8.92      11.23 
 C                    0     15.22     10.5      11.33 
 H                    0     14.67     11.06     10.84 
 C                    0     16.4      10.98     11.84 
 H                    0     16.63     11.88     11.72 
 C                    0     17.25     10.14     12.52 
 H                    0     18.05     10.46     12.85 
 C                    0     19.56     8.57      13.83 
 C                    0     20.35     8.66      12.72 
 H                    0     20.09     8.24      11.93 
 C                    0     21.56     9.38      12.79 
 H                    0     22.12     9.43      12.05 
 C                    0     21.9      10.01     13.95 
 H                    0     22.68     10.5      13.99 
 C                    0     21.11     9.91      15.04 
 H                    0     21.36     10.34     15.83 
 C                    0     19.91     9.17      15.01 
 H                    0     19.38     9.08      15.77 
 C                    0     17.24     7.54      15.34 
 C                    0     16.35     8.51      15.81 
 H                    0     16.09     9.22      15.27 
 C                    0     15.85     8.39      17.11 
 H                    0     15.28     9.04      17.45 
 C                    0     16.21     7.31      17.91 
 H                    0     15.87     7.22      18.77 
 C                    0     17.13     6.31      17.38 
 H                    0     17.42     5.6       17.91 
 C                    0     17.56     6.43      16.11 
 H                    0     18.09     5.76      15.74 
 P                    0     21.66     5.01      11.27 
 C                    0     22.86     6.37      11.25 
 C                    0     23.8      6.55      12.27 
 H                    0     23.77     6.01      13.03 
 C                    0     24.76     7.53      12.14 
 H                    0     25.35     7.68      12.84 
 C                    0     24.86     8.27      10.99 
 H                    0     25.53     8.91      10.9 
 C                    0     23.95     8.08      9.97 
 H                    0     24.02     8.59      9.19 
 C                    0     22.94     7.13      10.09 
 H                    0     22.33     7.01      9.4 
 C                    0     22.52     3.67      10.36 
 C                    0     23.89     3.68      10.14 
 H                    0     24.41     4.41      10.41 
 C                    0     24.5      2.6       9.5 
 H                    0     25.41     2.59      9.33 
 C                    0     23.7      1.53      9.12 
 H                    0     24.1      0.8       8.72 
 C                    0     22.36     1.52      9.31 
 H                    0     21.86     0.79      9.03 
 C                    0     21.75     2.61      9.94 
 H                    0     20.83     2.62      10.06 
 C                    0     21.67     4.42      12.99 
 C                    0     22.25     3.2       13.33 
 H                    0     22.64     2.67      12.67 
 C                    0     22.25     2.79      14.67 
 H                    0     22.65     1.99      14.9 
 C                    0     21.68     3.56      15.64 
 H                    0     21.68     3.27      16.52 
 C                    0     21.08     4.79      15.31 
 H                    0     20.69     5.31      15.97 
 C                    0     21.09     5.22      13.98 
 H                    0     20.72     6.05      13.76 
 P                    0     19.39     9.71      7.14 
 C                    0     20.14     9.52      5.5 
 C                    0     19.77     8.61      4.71 
 H                    0     19.17     7.97      5.03 
 C                    0     20.19     8.47      3.35 
 H                    0     19.83     7.83      2.79 
 C                    0     21.19     9.34      2.96 
 H                    0     21.58     9.24      2.12 
 C                    0     21.56     10.23     3.7 
 H                    0     22.16     10.85     3.35 
 C                    0     21.14     10.37     5. 
 H                    0     21.51     11.02     5.55 
 C                    0     17.79     10.56     6.81 
 C                    0     17.35     10.84     5.53 
 H                    0     17.9      10.63     4.81 
 C                    0     16.13     11.42     5.32 
 H                    0     15.82     11.61     4.46 
 C                    0     15.39     11.69     6.42 
 H                    0     14.53     12.02     6.3 
 C                    0     15.81     11.52     7.7 
 H                    0     15.29     11.81     8.41 
 C                    0     17.05     10.91     7.92 
 H                    0     17.35     10.74     8.78 
 C                    0     20.38     10.88     8.1 
 C                    0     21.48     10.44     8.83 
 H                    0     21.72     9.55      8.79 
 C                    0     22.21     11.33     9.55 
 H                    0     22.92     11.       10.07 
 C                    0     21.97     12.65     9.59 
 H                    0     22.52     13.23     10.06 
 C                    0     20.89     13.1      8.9 
 H                    0     20.66     14.       8.93 
 C                    0     20.11     12.23     8.15 
 H                    0     19.39     12.56     7.67 
 P                    0     20.33     4.08      5.86 
 C                    0     21.87     5.05      5.88 
 C                    0     22.15     5.98      4.89 
 H                    0     21.56     6.1       4.18 
 C                    0     23.31     6.74      4.96 
 H                    0     23.5      7.36      4.3 
 C                    0     24.19     6.57      6.02 
 H                    0     24.97     7.07      6.07 
 C                    0     23.91     5.64      7.01 
 H                    0     24.5      5.52      7.72 
 C                    0     22.75     4.88      6.94 
 H                    0     22.56     4.25      7.61 
 C                    0     19.64     4.23      4.2 
 C                    0     20.02     3.43      3.18 
 H                    0     20.63     2.74      3.33 
 C                    0     19.52     3.62      1.9 
 H                    0     19.78     3.04      1.22 
 C                    0     18.69     4.61      1.63 
 H                    0     18.44     4.78      0.75 
 C                    0     18.18     5.38      2.65 
 H                    0     17.5      5.99      2.49 
 C                    0     18.71     5.22      3.9 
 H                    0     18.43     5.79      4.58 
 C                    0     20.82     2.35      6.06 
 C                    0     22.12     1.89      5.77 
 H                    0     22.77     2.49      5.48 
 C                    0     22.41     0.57      5.91 
 H                    0     23.27     0.27      5.7 
 C                    0     21.48    -0.34      6.36 
 H                    0     21.72    -1.23      6.49 
 C                    0     20.2      0.09      6.6 
 H                    0     19.54    -0.52      6.86 
 C                    0     19.88     1.41      6.48 
 H                    0     19.02     1.69      6.67 
 P                    0     15.41     2.77      5.89 
 C                    0     16.26     1.81      4.62 
 C                    0     16.33     2.24      3.29 
 H                    0     15.9      3.01      3.02 
 C                    0     17.06     1.48      2.38 
 H                    0     17.14     1.76      1.5 
 C                    0     17.68     0.3       2.79 
 H                    0     18.16    -0.21      2.18 
 C                    0     17.59    -0.12      4.06 
 H                    0     18.01    -0.9       4.32 
 C                    0     16.85     0.62      5. 
 H                    0     16.77     0.31      5.87 
 C                    0     15.05     4.4       5.18 
 C                    0     15.74     5.5       5.63 
 H                    0     16.32     5.41      6.35 
 C                    0     15.56     6.76      5.02 
 H                    0     16.05     7.49      5.31 
 C                    0     14.67     6.88      3.99 
 H                    0     14.57     7.71      3.57 
 C                    0     13.89     5.78      3.56 
 H                    0     13.25     5.88      2.89 
 C                    0     14.12     4.54      4.17 
 H                    0     13.64     3.8       3.88 
 C                    0     13.83     1.94      6.19 
 C                    0     13.12     2.23      7.37 
 H                    0     13.44     2.88      7.95 
 C                    0     12.       1.58      7.69 
 H                    0     11.54     1.78      8.47 
 C                    0     11.51     0.55      6.81 
 H                    0     10.77     0.05      7.05 
 C                    0     12.14     0.32      5.64 
 H                    0     11.8     -0.3       5.05 
 C                    0     13.31     1.        5.31 
 H                    0     13.73     0.83      4.5 
 
 NAtoms=    234 NQM=      234 NQMF=       0 NMMI=      0 NMMIF=      0
                NMic=       0 NMicF=      0.
                    Isotopes and Nuclear Properties:
 (Nuclear quadrupole moments (NQMom) in fm**2, nuclear magnetic moments (NMagM)
  in nuclear magnetons)

  Atom         1           2           3           4           5           6           7           8           9          10
 IAtWgt=         197         197         197         197         197         197          14          12          12          12
 AtmWgt= 196.9666000 196.9666000 196.9666000 196.9666000 196.9666000 196.9666000  14.0030740  12.0000000  12.0000000  12.0000000
 NucSpn=           3           3           3           3           3           3           2           0           0           0
 AtZEff=   0.0000000   0.0000000   0.0000000   0.0000000   0.0000000   0.0000000   0.0000000   0.0000000   0.0000000   0.0000000
 NQMom=   54.7000000  54.7000000  54.7000000  54.7000000  54.7000000  54.7000000   2.0440000   0.0000000   0.0000000   0.0000000
 NMagM=    0.1481590   0.1481590   0.1481590   0.1481590   0.1481590   0.1481590   0.4037610   0.0000000   0.0000000   0.0000000
 AtZNuc=  79.0000000  79.0000000  79.0000000  79.0000000  79.0000000  79.0000000   7.0000000   6.0000000   6.0000000   6.0000000

  Atom        11          12          13          14          15          16          17          18          19          20
 IAtWgt=           1          12           1          12           1          12           1          12          12          14
 AtmWgt=   1.0078250  12.0000000   1.0078250  12.0000000   1.0078250  12.0000000   1.0078250  12.0000000  12.0000000  14.0030740
 NucSpn=           1           0           1           0           1           0           1           0           0           2
 AtZEff=   0.0000000   0.0000000   0.0000000   0.0000000   0.0000000   0.0000000   0.0000000   0.0000000   0.0000000   0.0000000
 NQMom=    0.0000000   0.0000000   0.0000000   0.0000000   0.0000000   0.0000000   0.0000000   0.0000000   0.0000000   2.0440000
 NMagM=    2.7928460   0.0000000   2.7928460   0.0000000   2.7928460   0.0000000   2.7928460   0.0000000   0.0000000   0.4037610
 AtZNuc=   1.0000000   6.0000000   1.0000000   6.0000000   1.0000000   6.0000000   1.0000000   6.0000000   6.0000000   7.0000000

  Atom        21          22          23          24          25          26          27          28          29          30
 IAtWgt=          12          12           1          12           1          12           1          12           1          12
 AtmWgt=  12.0000000  12.0000000   1.0078250  12.0000000   1.0078250  12.0000000   1.0078250  12.0000000   1.0078250  12.0000000
 NucSpn=           0           0           1           0           1           0           1           0           1           0
 AtZEff=   0.0000000   0.0000000   0.0000000   0.0000000   0.0000000   0.0000000   0.0000000   0.0000000   0.0000000   0.0000000
 NQMom=    0.0000000   0.0000000   0.0000000   0.0000000   0.0000000   0.0000000   0.0000000   0.0000000   0.0000000   0.0000000
 NMagM=    0.0000000   0.0000000   2.7928460   0.0000000   2.7928460   0.0000000   2.7928460   0.0000000   2.7928460   0.0000000
 AtZNuc=   6.0000000   6.0000000   1.0000000   6.0000000   1.0000000   6.0000000   1.0000000   6.0000000   1.0000000   6.0000000

  Atom        31          32          33          34          35          36          37          38          39          40
 IAtWgt=          31          12          12           1          12           1          12           1          12           1
 AtmWgt=  30.9737634  12.0000000  12.0000000   1.0078250  12.0000000   1.0078250  12.0000000   1.0078250  12.0000000   1.0078250
 NucSpn=           1           0           0           1           0           1           0           1           0           1
 AtZEff=   0.0000000   0.0000000   0.0000000   0.0000000   0.0000000   0.0000000   0.0000000   0.0000000   0.0000000   0.0000000
 NQMom=    0.0000000   0.0000000   0.0000000   0.0000000   0.0000000   0.0000000   0.0000000   0.0000000   0.0000000   0.0000000
 NMagM=    1.1316000   0.0000000   0.0000000   2.7928460   0.0000000   2.7928460   0.0000000   2.7928460   0.0000000   2.7928460
 AtZNuc=  15.0000000   6.0000000   6.0000000   1.0000000   6.0000000   1.0000000   6.0000000   1.0000000   6.0000000   1.0000000

  Atom        41          42          43          44          45          46          47          48          49          50
 IAtWgt=          12           1          12          12           1          12           1          12           1          12
 AtmWgt=  12.0000000   1.0078250  12.0000000  12.0000000   1.0078250  12.0000000   1.0078250  12.0000000   1.0078250  12.0000000
 NucSpn=           0           1           0           0           1           0           1           0           1           0
 AtZEff=   0.0000000   0.0000000   0.0000000   0.0000000   0.0000000   0.0000000   0.0000000   0.0000000   0.0000000   0.0000000
 NQMom=    0.0000000   0.0000000   0.0000000   0.0000000   0.0000000   0.0000000   0.0000000   0.0000000   0.0000000   0.0000000
 NMagM=    0.0000000   2.7928460   0.0000000   0.0000000   2.7928460   0.0000000   2.7928460   0.0000000   2.7928460   0.0000000
 AtZNuc=   6.0000000   1.0000000   6.0000000   6.0000000   1.0000000   6.0000000   1.0000000   6.0000000   1.0000000   6.0000000

  Atom        51          52          53          54          55          56          57          58          59          60
 IAtWgt=           1          12           1          12          12           1          12           1          12           1
 AtmWgt=   1.0078250  12.0000000   1.0078250  12.0000000  12.0000000   1.0078250  12.0000000   1.0078250  12.0000000   1.0078250
 NucSpn=           1           0           1           0           0           1           0           1           0           1
 AtZEff=   0.0000000   0.0000000   0.0000000   0.0000000   0.0000000   0.0000000   0.0000000   0.0000000   0.0000000   0.0000000
 NQMom=    0.0000000   0.0000000   0.0000000   0.0000000   0.0000000   0.0000000   0.0000000   0.0000000   0.0000000   0.0000000
 NMagM=    2.7928460   0.0000000   2.7928460   0.0000000   0.0000000   2.7928460   0.0000000   2.7928460   0.0000000   2.7928460
 AtZNuc=   1.0000000   6.0000000   1.0000000   6.0000000   6.0000000   1.0000000   6.0000000   1.0000000   6.0000000   1.0000000

  Atom        61          62          63          64          65          66          67          68          69          70
 IAtWgt=          12           1          12           1          31          12          12           1          12           1
 AtmWgt=  12.0000000   1.0078250  12.0000000   1.0078250  30.9737634  12.0000000  12.0000000   1.0078250  12.0000000   1.0078250
 NucSpn=           0           1           0           1           1           0           0           1           0           1
 AtZEff=   0.0000000   0.0000000   0.0000000   0.0000000   0.0000000   0.0000000   0.0000000   0.0000000   0.0000000   0.0000000
 NQMom=    0.0000000   0.0000000   0.0000000   0.0000000   0.0000000   0.0000000   0.0000000   0.0000000   0.0000000   0.0000000
 NMagM=    0.0000000   2.7928460   0.0000000   2.7928460   1.1316000   0.0000000   0.0000000   2.7928460   0.0000000   2.7928460
 AtZNuc=   6.0000000   1.0000000   6.0000000   1.0000000  15.0000000   6.0000000   6.0000000   1.0000000   6.0000000   1.0000000

  Atom        71          72          73          74          75          76          77          78          79          80
 IAtWgt=          12           1          12           1          12           1          12          12           1          12
 AtmWgt=  12.0000000   1.0078250  12.0000000   1.0078250  12.0000000   1.0078250  12.0000000  12.0000000   1.0078250  12.0000000
 NucSpn=           0           1           0           1           0           1           0           0           1           0
 AtZEff=   0.0000000   0.0000000   0.0000000   0.0000000   0.0000000   0.0000000   0.0000000   0.0000000   0.0000000   0.0000000
 NQMom=    0.0000000   0.0000000   0.0000000   0.0000000   0.0000000   0.0000000   0.0000000   0.0000000   0.0000000   0.0000000
 NMagM=    0.0000000   2.7928460   0.0000000   2.7928460   0.0000000   2.7928460   0.0000000   0.0000000   2.7928460   0.0000000
 AtZNuc=   6.0000000   1.0000000   6.0000000   1.0000000   6.0000000   1.0000000   6.0000000   6.0000000   1.0000000   6.0000000

  Atom        81          82          83          84          85          86          87          88          89          90
 IAtWgt=           1          12           1          12           1          12           1          12          12           1
 AtmWgt=   1.0078250  12.0000000   1.0078250  12.0000000   1.0078250  12.0000000   1.0078250  12.0000000  12.0000000   1.0078250
 NucSpn=           1           0           1           0           1           0           1           0           0           1
 AtZEff=   0.0000000   0.0000000   0.0000000   0.0000000   0.0000000   0.0000000   0.0000000   0.0000000   0.0000000   0.0000000
 NQMom=    0.0000000   0.0000000   0.0000000   0.0000000   0.0000000   0.0000000   0.0000000   0.0000000   0.0000000   0.0000000
 NMagM=    2.7928460   0.0000000   2.7928460   0.0000000   2.7928460   0.0000000   2.7928460   0.0000000   0.0000000   2.7928460
 AtZNuc=   1.0000000   6.0000000   1.0000000   6.0000000   1.0000000   6.0000000   1.0000000   6.0000000   6.0000000   1.0000000

  Atom        91          92          93          94          95          96          97          98          99         100
 IAtWgt=          12           1          12           1          12           1          12           1          31          12
 AtmWgt=  12.0000000   1.0078250  12.0000000   1.0078250  12.0000000   1.0078250  12.0000000   1.0078250  30.9737634  12.0000000
 NucSpn=           0           1           0           1           0           1           0           1           1           0
 AtZEff=   0.0000000   0.0000000   0.0000000   0.0000000   0.0000000   0.0000000   0.0000000   0.0000000   0.0000000   0.0000000
 NQMom=    0.0000000   0.0000000   0.0000000   0.0000000   0.0000000   0.0000000   0.0000000   0.0000000   0.0000000   0.0000000
 NMagM=    0.0000000   2.7928460   0.0000000   2.7928460   0.0000000   2.7928460   0.0000000   2.7928460   1.1316000   0.0000000
 AtZNuc=   6.0000000   1.0000000   6.0000000   1.0000000   6.0000000   1.0000000   6.0000000   1.0000000  15.0000000   6.0000000

  Atom       101         102         103         104         105         106         107         108         109         110
 IAtWgt=          12           1          12           1          12           1          12           1          12           1
 AtmWgt=  12.0000000   1.0078250  12.0000000   1.0078250  12.0000000   1.0078250  12.0000000   1.0078250  12.0000000   1.0078250
 NucSpn=           0           1           0           1           0           1           0           1           0           1
 AtZEff=   0.0000000   0.0000000   0.0000000   0.0000000   0.0000000   0.0000000   0.0000000   0.0000000   0.0000000   0.0000000
 NQMom=    0.0000000   0.0000000   0.0000000   0.0000000   0.0000000   0.0000000   0.0000000   0.0000000   0.0000000   0.0000000
 NMagM=    0.0000000   2.7928460   0.0000000   2.7928460   0.0000000   2.7928460   0.0000000   2.7928460   0.0000000   2.7928460
 AtZNuc=   6.0000000   1.0000000   6.0000000   1.0000000   6.0000000   1.0000000   6.0000000   1.0000000   6.0000000   1.0000000

  Atom       111         112         113         114         115         116         117         118         119         120
 IAtWgt=          12          12           1          12           1          12           1          12           1          12
 AtmWgt=  12.0000000  12.0000000   1.0078250  12.0000000   1.0078250  12.0000000   1.0078250  12.0000000   1.0078250  12.0000000
 NucSpn=           0           0           1           0           1           0           1           0           1           0
 AtZEff=   0.0000000   0.0000000   0.0000000   0.0000000   0.0000000   0.0000000   0.0000000   0.0000000   0.0000000   0.0000000
 NQMom=    0.0000000   0.0000000   0.0000000   0.0000000   0.0000000   0.0000000   0.0000000   0.0000000   0.0000000   0.0000000
 NMagM=    0.0000000   0.0000000   2.7928460   0.0000000   2.7928460   0.0000000   2.7928460   0.0000000   2.7928460   0.0000000
 AtZNuc=   6.0000000   6.0000000   1.0000000   6.0000000   1.0000000   6.0000000   1.0000000   6.0000000   1.0000000   6.0000000

  Atom       121         122         123         124         125         126         127         128         129         130
 IAtWgt=           1          12          12           1          12           1          12           1          12           1
 AtmWgt=   1.0078250  12.0000000  12.0000000   1.0078250  12.0000000   1.0078250  12.0000000   1.0078250  12.0000000   1.0078250
 NucSpn=           1           0           0           1           0           1           0           1           0           1
 AtZEff=   0.0000000   0.0000000   0.0000000   0.0000000   0.0000000   0.0000000   0.0000000   0.0000000   0.0000000   0.0000000
 NQMom=    0.0000000   0.0000000   0.0000000   0.0000000   0.0000000   0.0000000   0.0000000   0.0000000   0.0000000   0.0000000
 NMagM=    2.7928460   0.0000000   0.0000000   2.7928460   0.0000000   2.7928460   0.0000000   2.7928460   0.0000000   2.7928460
 AtZNuc=   1.0000000   6.0000000   6.0000000   1.0000000   6.0000000   1.0000000   6.0000000   1.0000000   6.0000000   1.0000000

  Atom       131         132         133         134         135         136         137         138         139         140
 IAtWgt=          12           1          31          12          12           1          12           1          12           1
 AtmWgt=  12.0000000   1.0078250  30.9737634  12.0000000  12.0000000   1.0078250  12.0000000   1.0078250  12.0000000   1.0078250
 NucSpn=           0           1           1           0           0           1           0           1           0           1
 AtZEff=   0.0000000   0.0000000   0.0000000   0.0000000   0.0000000   0.0000000   0.0000000   0.0000000   0.0000000   0.0000000
 NQMom=    0.0000000   0.0000000   0.0000000   0.0000000   0.0000000   0.0000000   0.0000000   0.0000000   0.0000000   0.0000000
 NMagM=    0.0000000   2.7928460   1.1316000   0.0000000   0.0000000   2.7928460   0.0000000   2.7928460   0.0000000   2.7928460
 AtZNuc=   6.0000000   1.0000000  15.0000000   6.0000000   6.0000000   1.0000000   6.0000000   1.0000000   6.0000000   1.0000000

  Atom       141         142         143         144         145         146         147         148         149         150
 IAtWgt=          12           1          12           1          12          12           1          12           1          12
 AtmWgt=  12.0000000   1.0078250  12.0000000   1.0078250  12.0000000  12.0000000   1.0078250  12.0000000   1.0078250  12.0000000
 NucSpn=           0           1           0           1           0           0           1           0           1           0
 AtZEff=   0.0000000   0.0000000   0.0000000   0.0000000   0.0000000   0.0000000   0.0000000   0.0000000   0.0000000   0.0000000
 NQMom=    0.0000000   0.0000000   0.0000000   0.0000000   0.0000000   0.0000000   0.0000000   0.0000000   0.0000000   0.0000000
 NMagM=    0.0000000   2.7928460   0.0000000   2.7928460   0.0000000   0.0000000   2.7928460   0.0000000   2.7928460   0.0000000
 AtZNuc=   6.0000000   1.0000000   6.0000000   1.0000000   6.0000000   6.0000000   1.0000000   6.0000000   1.0000000   6.0000000

  Atom       151         152         153         154         155         156         157         158         159         160
 IAtWgt=           1          12           1          12           1          12          12           1          12           1
 AtmWgt=   1.0078250  12.0000000   1.0078250  12.0000000   1.0078250  12.0000000  12.0000000   1.0078250  12.0000000   1.0078250
 NucSpn=           1           0           1           0           1           0           0           1           0           1
 AtZEff=   0.0000000   0.0000000   0.0000000   0.0000000   0.0000000   0.0000000   0.0000000   0.0000000   0.0000000   0.0000000
 NQMom=    0.0000000   0.0000000   0.0000000   0.0000000   0.0000000   0.0000000   0.0000000   0.0000000   0.0000000   0.0000000
 NMagM=    2.7928460   0.0000000   2.7928460   0.0000000   2.7928460   0.0000000   0.0000000   2.7928460   0.0000000   2.7928460
 AtZNuc=   1.0000000   6.0000000   1.0000000   6.0000000   1.0000000   6.0000000   6.0000000   1.0000000   6.0000000   1.0000000

  Atom       161         162         163         164         165         166         167         168         169         170
 IAtWgt=          12           1          12           1          12           1          31          12          12           1
 AtmWgt=  12.0000000   1.0078250  12.0000000   1.0078250  12.0000000   1.0078250  30.9737634  12.0000000  12.0000000   1.0078250
 NucSpn=           0           1           0           1           0           1           1           0           0           1
 AtZEff=   0.0000000   0.0000000   0.0000000   0.0000000   0.0000000   0.0000000   0.0000000   0.0000000   0.0000000   0.0000000
 NQMom=    0.0000000   0.0000000   0.0000000   0.0000000   0.0000000   0.0000000   0.0000000   0.0000000   0.0000000   0.0000000
 NMagM=    0.0000000   2.7928460   0.0000000   2.7928460   0.0000000   2.7928460   1.1316000   0.0000000   0.0000000   2.7928460
 AtZNuc=   6.0000000   1.0000000   6.0000000   1.0000000   6.0000000   1.0000000  15.0000000   6.0000000   6.0000000   1.0000000

  Atom       171         172         173         174         175         176         177         178         179         180
 IAtWgt=          12           1          12           1          12           1          12           1          12          12
 AtmWgt=  12.0000000   1.0078250  12.0000000   1.0078250  12.0000000   1.0078250  12.0000000   1.0078250  12.0000000  12.0000000
 NucSpn=           0           1           0           1           0           1           0           1           0           0
 AtZEff=   0.0000000   0.0000000   0.0000000   0.0000000   0.0000000   0.0000000   0.0000000   0.0000000   0.0000000   0.0000000
 NQMom=    0.0000000   0.0000000   0.0000000   0.0000000   0.0000000   0.0000000   0.0000000   0.0000000   0.0000000   0.0000000
 NMagM=    0.0000000   2.7928460   0.0000000   2.7928460   0.0000000   2.7928460   0.0000000   2.7928460   0.0000000   0.0000000
 AtZNuc=   6.0000000   1.0000000   6.0000000   1.0000000   6.0000000   1.0000000   6.0000000   1.0000000   6.0000000   6.0000000

  Atom       181         182         183         184         185         186         187         188         189         190
 IAtWgt=           1          12           1          12           1          12           1          12           1          12
 AtmWgt=   1.0078250  12.0000000   1.0078250  12.0000000   1.0078250  12.0000000   1.0078250  12.0000000   1.0078250  12.0000000
 NucSpn=           1           0           1           0           1           0           1           0           1           0
 AtZEff=   0.0000000   0.0000000   0.0000000   0.0000000   0.0000000   0.0000000   0.0000000   0.0000000   0.0000000   0.0000000
 NQMom=    0.0000000   0.0000000   0.0000000   0.0000000   0.0000000   0.0000000   0.0000000   0.0000000   0.0000000   0.0000000
 NMagM=    2.7928460   0.0000000   2.7928460   0.0000000   2.7928460   0.0000000   2.7928460   0.0000000   2.7928460   0.0000000
 AtZNuc=   1.0000000   6.0000000   1.0000000   6.0000000   1.0000000   6.0000000   1.0000000   6.0000000   1.0000000   6.0000000

  Atom       191         192         193         194         195         196         197         198         199         200
 IAtWgt=          12           1          12           1          12           1          12           1          12           1
 AtmWgt=  12.0000000   1.0078250  12.0000000   1.0078250  12.0000000   1.0078250  12.0000000   1.0078250  12.0000000   1.0078250
 NucSpn=           0           1           0           1           0           1           0           1           0           1
 AtZEff=   0.0000000   0.0000000   0.0000000   0.0000000   0.0000000   0.0000000   0.0000000   0.0000000   0.0000000   0.0000000
 NQMom=    0.0000000   0.0000000   0.0000000   0.0000000   0.0000000   0.0000000   0.0000000   0.0000000   0.0000000   0.0000000
 NMagM=    0.0000000   2.7928460   0.0000000   2.7928460   0.0000000   2.7928460   0.0000000   2.7928460   0.0000000   2.7928460
 AtZNuc=   6.0000000   1.0000000   6.0000000   1.0000000   6.0000000   1.0000000   6.0000000   1.0000000   6.0000000   1.0000000

  Atom       201         202         203         204         205         206         207         208         209         210
 IAtWgt=          31          12          12           1          12           1          12           1          12           1
 AtmWgt=  30.9737634  12.0000000  12.0000000   1.0078250  12.0000000   1.0078250  12.0000000   1.0078250  12.0000000   1.0078250
 NucSpn=           1           0           0           1           0           1           0           1           0           1
 AtZEff=   0.0000000   0.0000000   0.0000000   0.0000000   0.0000000   0.0000000   0.0000000   0.0000000   0.0000000   0.0000000
 NQMom=    0.0000000   0.0000000   0.0000000   0.0000000   0.0000000   0.0000000   0.0000000   0.0000000   0.0000000   0.0000000
 NMagM=    1.1316000   0.0000000   0.0000000   2.7928460   0.0000000   2.7928460   0.0000000   2.7928460   0.0000000   2.7928460
 AtZNuc=  15.0000000   6.0000000   6.0000000   1.0000000   6.0000000   1.0000000   6.0000000   1.0000000   6.0000000   1.0000000

  Atom       211         212         213         214         215         216         217         218         219         220
 IAtWgt=          12           1          12          12           1          12           1          12           1          12
 AtmWgt=  12.0000000   1.0078250  12.0000000  12.0000000   1.0078250  12.0000000   1.0078250  12.0000000   1.0078250  12.0000000
 NucSpn=           0           1           0           0           1           0           1           0           1           0
 AtZEff=   0.0000000   0.0000000   0.0000000   0.0000000   0.0000000   0.0000000   0.0000000   0.0000000   0.0000000   0.0000000
 NQMom=    0.0000000   0.0000000   0.0000000   0.0000000   0.0000000   0.0000000   0.0000000   0.0000000   0.0000000   0.0000000
 NMagM=    0.0000000   2.7928460   0.0000000   0.0000000   2.7928460   0.0000000   2.7928460   0.0000000   2.7928460   0.0000000
 AtZNuc=   6.0000000   1.0000000   6.0000000   6.0000000   1.0000000   6.0000000   1.0000000   6.0000000   1.0000000   6.0000000

  Atom       221         222         223         224         225         226         227         228         229         230
 IAtWgt=           1          12           1          12          12           1          12           1          12           1
 AtmWgt=   1.0078250  12.0000000   1.0078250  12.0000000  12.0000000   1.0078250  12.0000000   1.0078250  12.0000000   1.0078250
 NucSpn=           1           0           1           0           0           1           0           1           0           1
 AtZEff=   0.0000000   0.0000000   0.0000000   0.0000000   0.0000000   0.0000000   0.0000000   0.0000000   0.0000000   0.0000000
 NQMom=    0.0000000   0.0000000   0.0000000   0.0000000   0.0000000   0.0000000   0.0000000   0.0000000   0.0000000   0.0000000
 NMagM=    2.7928460   0.0000000   2.7928460   0.0000000   0.0000000   2.7928460   0.0000000   2.7928460   0.0000000   2.7928460
 AtZNuc=   1.0000000   6.0000000   1.0000000   6.0000000   6.0000000   1.0000000   6.0000000   1.0000000   6.0000000   1.0000000

  Atom       231         232         233         234
 IAtWgt=          12           1          12           1
 AtmWgt=  12.0000000   1.0078250  12.0000000   1.0078250
 NucSpn=           0           1           0           1
 AtZEff=   0.0000000   0.0000000   0.0000000   0.0000000
 NQMom=    0.0000000   0.0000000   0.0000000   0.0000000
 NMagM=    0.0000000   2.7928460   0.0000000   2.7928460
 AtZNuc=   6.0000000   1.0000000   6.0000000   1.0000000
 Leave Link  101 at Mon Aug 27 21:32:52 2018, MaxMem= 12266797568 cpu:        28.3
 (Enter /home/scicons/Gaussian09.D01/l202.exe)
 Stoichiometry    C122H98Au6N2P6(2+)
 Framework group  C1[X(C122H98Au6N2P6)]
 Deg. of freedom   696
 Full point group                 C1      NOp   1
 Largest Abelian subgroup         C1      NOp   1
 Largest concise Abelian subgroup C1      NOp   1
                         Standard orientation:                         
 ---------------------------------------------------------------------
 Center     Atomic      Atomic             Coordinates (Angstroms)
 Number     Number       Type             X           Y           Z
 ---------------------------------------------------------------------
      1         79           0        4.121302    1.239054    0.393397
      2         79           0        2.677657   -1.145698    0.467196
      3         79           0       -0.181027   -1.346892    1.110504
      4         79           0       -1.990243   -1.719353   -1.519517
      5         79           0       -2.422079    0.473934    0.422624
      6         79           0       -0.961878    3.350742    0.270679
      7          7           0       -0.768089   -0.346429   -0.634125
      8          6           0        2.217721    0.773818    1.251555
      9          6           0        0.004103    0.468799   -1.500164
     10          6           0       -0.132107    0.448001   -2.892290
     11          1           0       -0.745186   -0.136537   -3.266922
     12          6           0        0.594337    1.234471   -3.708528
     13          1           0        0.447355    1.198503   -4.621328
     14          6           0        1.570062    2.121165   -3.199770
     15          1           0        2.056583    2.677482   -3.762894
     16          6           0        1.761417    2.121849   -1.836875
     17          1           0        2.416484    2.683556   -1.487057
     18          6           0        1.022125    1.339656   -0.965713
     19          6           0        1.251749    1.423378    0.494343
     20          7           0        0.435628    2.185675    1.249094
     21          6           0        1.950528    1.200067    2.619699
     22          6           0        2.535372    0.951080    3.846468
     23          1           0        3.251585    0.354366    3.914820
     24          6           0        2.045401    1.604951    4.962703
     25          1           0        2.448972    1.471532    5.788494
     26          6           0        0.950310    2.477318    4.886215
     27          1           0        0.637120    2.887953    5.654909
     28          6           0        0.330198    2.701507    3.674976
     29          1           0       -0.413025    3.262872    3.617624
     30          6           0        0.848021    2.090151    2.554662
     31         15           0        5.981517    2.075476   -0.569358
     32          6           0        6.601679    1.142442   -1.990254
     33          6           0        7.885541    0.563003   -2.008948
     34          1           0        8.475351    0.701008   -1.299104
     35          6           0        8.269012   -0.195179   -3.076426
     36          1           0        9.110179   -0.596194   -3.081479
     37          6           0        7.446027   -0.394699   -4.156466
     38          1           0        7.751550   -0.885769   -4.884275
     39          6           0        6.176152    0.142139   -4.167597
     40          1           0        5.607757   -0.003698   -4.886386
     41          6           0        5.749006    0.908817   -3.089148
     42          1           0        4.887253    1.272344   -3.100556
     43          6           0        5.637667    3.753045   -1.195561
     44          6           0        6.286408    4.306790   -2.295880
     45          1           0        6.883141    3.796571   -2.779291
     46          6           0        6.023259    5.620633   -2.656394
     47          1           0        6.486329    6.005992   -3.371911
     48          6           0        5.122530    6.362116   -1.985358
     49          1           0        4.930188    7.219397   -2.257338
     50          6           0        4.463696    5.827330   -0.903443
     51          1           0        3.852815    6.350409   -0.431625
     52          6           0        4.705739    4.528314   -0.483475
     53          1           0        4.253310    4.176654    0.239189
     54          6           0        7.356845    2.236374    0.570065
     55          6           0        8.292580    3.278525    0.489303
     56          1           0        8.254984    3.886412   -0.222286
     57          6           0        9.272581    3.398511    1.444762
     58          1           0        9.869153    4.113335    1.397549
     59          6           0        9.383625    2.474355    2.474910
     60          1           0       10.059780    2.558460    3.114472
     61          6           0        8.527676    1.455675    2.536093
     62          1           0        8.598158    0.828338    3.220476
     63          6           0        7.499250    1.308173    1.600581
     64          1           0        6.917670    0.587656    1.666310
     65         15           0        3.387659   -2.943069   -0.719714
     66          6           0        2.869162   -2.819749   -2.460103
     67          6           0        2.933452   -1.564106   -3.103630
     68          1           0        3.196851   -0.813624   -2.627083
     69          6           0        2.582790   -1.461095   -4.424473
     70          1           0        2.659304   -0.634009   -4.842412
     71          6           0        2.142617   -2.513843   -5.115466
     72          1           0        1.872439   -2.414148   -5.994820
     73          6           0        2.087815   -3.749948   -4.522219
     74          1           0        1.809424   -4.494737   -5.017283
     75          6           0        2.432884   -3.896139   -3.199323
     76          1           0        2.381840   -4.724959   -2.797139
     77          6           0        2.820866   -4.622462   -0.226273
     78          6           0        1.482606   -4.793434   -0.016206
     79          1           0        0.904414   -4.066714   -0.091529
     80          6           0        0.994917   -6.071088    0.326077
     81          1           0        0.090069   -6.198229    0.495741
     82          6           0        1.859726   -7.122222    0.399035
     83          1           0        1.538502   -7.962643    0.600549
     84          6           0        3.180626   -6.937321    0.191104
     85          1           0        3.762029   -7.665109    0.252696
     86          6           0        3.702354   -5.664953   -0.120956
     87          1           0        4.616613   -5.534199   -0.237721
     88          6           0        5.222924   -2.979912   -0.731792
     89          6           0        5.929827   -3.291346   -1.896781
     90          1           0        5.483887   -3.459116   -2.694459
     91          6           0        7.325950   -3.339967   -1.843161
     92          1           0        7.811747   -3.573225   -2.599859
     93          6           0        7.999188   -3.055884   -0.659080
     94          1           0        8.927415   -3.074811   -0.622546
     95          6           0        7.228038   -2.720955    0.532747
     96          1           0        7.652709   -2.568099    1.348461
     97          6           0        5.887606   -2.639789    0.438640
     98          1           0        5.392412   -2.357658    1.174768
     99         15           0       -0.060593   -2.485810    3.055359
    100          6           0       -0.680115   -4.185674    2.926304
    101          6           0       -0.148098   -5.232825    3.685799
    102          1           0        0.601348   -5.084440    4.220975
    103          6           0       -0.738369   -6.476758    3.630037
    104          1           0       -0.353148   -7.180763    4.095420
    105          6           0       -1.888040   -6.679321    2.910785
    106          1           0       -2.295630   -7.516221    2.902469
    107          6           0       -2.431380   -5.643298    2.178639
    108          1           0       -3.212721   -5.787811    1.686680
    109          6           0       -1.832464   -4.386995    2.177197
    110          1           0       -2.203003   -3.695677    1.679823
    111          6           0       -1.124609   -1.742101    4.350761
    112          6           0       -1.881261   -2.510363    5.224060
    113          1           0       -1.907945   -3.442020    5.137438
    114          6           0       -2.620073   -1.891849    6.233861
    115          1           0       -3.142988   -2.382155    6.819744
    116          6           0       -2.551290   -0.508539    6.338852
    117          1           0       -3.016013   -0.093979    7.020815
    118          6           0       -1.834109    0.251571    5.478803
    119          1           0       -1.824638    1.174413    5.576651
    120          6           0       -1.105243   -0.370730    4.459688
    121          1           0       -0.623782    0.142581    3.855033
    122          6           0        1.550627   -2.650574    3.882054
    123          6           0        1.727770   -2.244772    5.202790
    124          1           0        1.013588   -1.879559    5.677304
    125          6           0        2.981995   -2.403972    5.807170
    126          1           0        3.096593   -2.152253    6.688309
    127          6           0        4.031089   -2.936258    5.118133
    128          1           0        4.856509   -3.025938    5.529399
    129          6           0        3.870316   -3.340413    3.779249
    130          1           0        4.585341   -3.698458    3.311657
    131          6           0        2.619451   -3.205028    3.170226
    132          1           0        2.499259   -3.499927    2.291143
    133         15           0       -3.295476   -3.073901   -2.731650
    134          6           0       -5.076301   -2.840577   -2.481807
    135          6           0       -5.568563   -1.695554   -2.292860
    136          1           0       -4.980018   -0.979111   -2.181855
    137          6           0       -6.964930   -1.391496   -2.235340
    138          1           0       -7.274674   -0.523869   -2.171448
    139          6           0       -7.798795   -2.493067   -2.249928
    140          1           0       -8.713072   -2.375206   -2.116117
    141          6           0       -7.350355   -3.606848   -2.436993
    142          1           0       -7.964520   -4.298813   -2.541332
    143          6           0       -6.008600   -3.890619   -2.508868
    144          1           0       -5.712856   -4.768131   -2.575265
    145          6           0       -3.018680   -2.595839   -4.488420
    146          6           0       -4.028900   -2.095416   -5.288065
    147          1           0       -4.889563   -2.036858   -4.940457
    148          6           0       -3.774212   -1.696138   -6.570489
    149          1           0       -4.447282   -1.352493   -7.118836
    150          6           0       -2.495689   -1.810317   -6.998089
    151          1           0       -2.283990   -1.481818   -7.840805
    152          6           0       -1.486635   -2.377390   -6.288203
    153          1           0       -0.653986   -2.508204   -6.673149
    154          6           0       -1.737802   -2.770743   -4.969002
    155          1           0       -1.062363   -3.122625   -4.441308
    156          6           0       -2.921833   -4.840867   -2.637725
    157          6           0       -2.666369   -5.443135   -1.409510
    158          1           0       -2.725047   -4.938039   -0.639618
    159          6           0       -2.382122   -6.769696   -1.356230
    160          1           0       -2.168918   -7.141967   -0.519954
    161          6           0       -2.359705   -7.583007   -2.423762
    162          1           0       -2.203868   -8.493066   -2.338280
    163          6           0       -2.587716   -7.013628   -3.635710
    164          1           0       -2.543038   -7.528609   -4.408108
    165          6           0       -2.880679   -5.660767   -3.744057
    166          1           0       -3.053420   -5.295922   -4.577573
    167         15           0       -4.366924    0.821104    1.499170
    168          6           0       -5.055028   -0.820086    1.881147
    169          6           0       -6.148087   -1.322707    1.191223
    170          1           0       -6.565180   -0.808851    0.536559
    171          6           0       -6.618873   -2.598541    1.471773
    172          1           0       -7.348931   -2.935655    1.014093
    173          6           0       -5.996601   -3.371754    2.442247
    174          1           0       -6.309566   -4.222724    2.639231
    175          6           0       -4.903543   -2.869133    3.132171
    176          1           0       -4.486450   -3.382989    3.786835
    177          6           0       -4.432756   -1.593299    2.851621
    178          1           0       -3.692754   -1.252399    3.318615
    179          6           0       -5.610671    1.695654    0.528368
    180          6           0       -6.625695    2.382219    1.096835
    181          1           0       -6.678349    2.454076    2.025686
    182          6           0       -7.603994    2.983743    0.318632
    183          1           0       -8.279445    3.470837    0.734451
    184          6           0       -7.596647    2.871592   -0.996384
    185          1           0       -8.310566    3.199744   -1.494818
    186          6           0       -6.526375    2.285810   -1.632605
    187          1           0       -6.447690    2.317365   -2.556138
    188          6           0       -5.590077    1.654630   -0.861917
    189          1           0       -4.905672    1.186901   -1.284433
    190          6           0       -4.237701    1.694685    3.078143
    191          6           0       -4.990044    1.329666    4.212357
    192          1           0       -5.568188    0.601258    4.170262
    193          6           0       -4.868904    2.051623    5.356998
    194          1           0       -5.383494    1.813200    6.099999
    195          6           0       -4.005442    3.118889    5.461292
    196          1           0       -3.909389    3.566505    6.271856
    197          6           0       -3.304188    3.510121    4.349500
    198          1           0       -2.748452    4.261939    4.384531
    199          6           0       -3.394960    2.799696    3.189217
    200          1           0       -2.896886    3.059218    2.455274
    201         15           0       -2.233967    4.750351   -0.936997
    202          6           0       -3.653641    5.349506    0.002439
    203          6           0       -4.928837    5.448301   -0.565729
    204          1           0       -5.065147    5.249905   -1.456099
    205          6           0       -5.989048    5.855557    0.239688
    206          1           0       -6.846066    5.903617   -0.110184
    207          6           0       -5.767786    6.184626    1.576721
    208          1           0       -6.474642    6.463713    2.110636
    209          6           0       -4.539934    6.111148    2.109993
    210          1           0       -4.407827    6.326191    2.998083
    211          6           0       -3.446676    5.714181    1.318788
    212          1           0       -2.596229    5.691006    1.687033
    213          6           0       -2.871670    4.041609   -2.480247
    214          6           0       -2.834661    2.680210   -2.664157
    215          1           0       -2.406942    2.147568   -2.034675
    216          6           0       -3.423137    2.093093   -3.804811
    217          1           0       -3.419452    1.172969   -3.907075
    218          6           0       -4.009832    2.898100   -4.740307
    219          1           0       -4.421553    2.506168   -5.483392
    220          6           0       -3.992140    4.307622   -4.612894
    221          1           0       -4.350862    4.852781   -5.278191
    222          6           0       -3.425626    4.849912   -3.452039
    223          1           0       -3.432524    5.771105   -3.336043
    224          6           0       -1.250189    6.207388   -1.366559
    225          6           0        0.087297    6.033528   -1.768436
    226          1           0        0.430622    5.176365   -1.861701
    227          6           0        0.887559    7.074257   -2.004584
    228          1           0        1.767179    6.947694   -2.269633
    229          6           0        0.372162    8.408904   -1.835818
    230          1           0        0.932860    9.137426   -1.936186
    231          6           0       -0.928839    8.585164   -1.527553
    232          1           0       -1.275686    9.436402   -1.471064
    233          6           0       -1.761009    7.495821   -1.280516
    234          1           0       -2.654243    7.635417   -1.070647
 ---------------------------------------------------------------------
 Rotational constants (GHZ):      0.0108553      0.0085424      0.0071489
 Leave Link  202 at Mon Aug 27 21:32:52 2018, MaxMem= 12266797568 cpu:         0.9
 (Enter /home/scicons/Gaussian09.D01/l301.exe)
 General basis read from cards:  (5D, 7F)
 Centers:       1      2      3      4      5      6
 lanl2dz
 ****
 Centers:       7      8      9     10     11     12     13     14     15     16
 Centers:      17     18     19     20     21     22     23     24     25     26
 Centers:      27     28     29     30     31     32     33     34     35     36
 Centers:      37     38     39     40     41     42     43     44     45     46
 Centers:      47     48     49     50     51     52     53     54     55     56
 Centers:      57     58     59     60     61     62     63     64     65     66
 Centers:      67     68     69     70     71     72     73     74     75     76
 Centers:      77     78     79     80     81     82     83     84     85     86
 Centers:      87     88     89     90     91     92     93     94     95     96
 Centers:      97     98     99    100    101    102    103    104    105    106
 Centers:     107    108    109    110    111    112    113    114    115    116
 Centers:     117    118    119    120    121    122    123    124    125    126
 Centers:     127    128    129    130    131    132    133    134    135    136
 Centers:     137    138    139    140    141    142    143    144    145    146
 Centers:     147    148    149    150    151    152    153    154    155    156
 Centers:     157    158    159    160    161    162    163    164    165    166
 Centers:     167    168    169    170    171    172    173    174    175    176
 Centers:     177    178    179    180    181    182    183    184    185    186
 Centers:     187    188    189    190    191    192    193    194    195    196
 Centers:     197    198    199    200    201    202    203    204    205    206
 Centers:     207    208    209    210    211    212    213    214    215    216
 Centers:     217    218    219    220    221    222    223    224    225    226
 Centers:     227    228    229    230    231    232    233    234
 6-31G(d)
 ****
 ======================================================================================================
                                       Pseudopotential Parameters
 ======================================================================================================
  Center     Atomic      Valence      Angular      Power
  Number     Number     Electrons     Momentum     of R      Exponent        Coefficient   SO-Coeffient
 ======================================================================================================
    1         79           19
                                      G and up 
                                                     1      622.6287956      -60.00000000    0.00000000
                                                     2      136.2843607     -555.52923120    0.00000000
                                                     2       33.1549781     -168.00197850    0.00000000
                                                     2        9.9894895      -63.03998750    0.00000000
                                                     2        3.0481312       -4.25166810    0.00000000
                                      S - G
                                                     0      194.7374304        3.00000000    0.00000000
                                                     1      351.5327447       38.60208800    0.00000000
                                                     2      122.3270402      864.83707270    0.00000000
                                                     2       32.0914617      374.99355200    0.00000000
                                                     2        5.2451812      289.79101000    0.00000000
                                                     2        4.4916223     -152.45327730    0.00000000
                                      P - G
                                                     0      420.6158801        2.00000000    0.00000000
                                                     1      109.4417815       73.88856250    0.00000000
                                                     2       34.1714280      326.67298720    0.00000000
                                                     2        5.9879750      126.58145910    0.00000000
                                      D - G
                                                     0      219.2666158        3.00000000    0.00000000
                                                     1      122.7297786       55.67931490    0.00000000
                                                     2       63.1063369      449.19873350    0.00000000
                                                     2       18.3684520      215.02690910    0.00000000
                                                     2        4.4972844       64.08409950    0.00000000
                                      F - G
                                                     0      108.5506037        4.00000000    0.00000000
                                                     1       56.4795527       51.80653350    0.00000000
                                                     2       29.2069159      231.21831130    0.00000000
                                                     2        9.5440543      119.00473860    0.00000000
                                                     2        2.8965118       15.34241880    0.00000000
    2         79           19
                                      G and up 
                                                     1      622.6287956      -60.00000000    0.00000000
                                                     2      136.2843607     -555.52923120    0.00000000
                                                     2       33.1549781     -168.00197850    0.00000000
                                                     2        9.9894895      -63.03998750    0.00000000
                                                     2        3.0481312       -4.25166810    0.00000000
                                      S - G
                                                     0      194.7374304        3.00000000    0.00000000
                                                     1      351.5327447       38.60208800    0.00000000
                                                     2      122.3270402      864.83707270    0.00000000
                                                     2       32.0914617      374.99355200    0.00000000
                                                     2        5.2451812      289.79101000    0.00000000
                                                     2        4.4916223     -152.45327730    0.00000000
                                      P - G
                                                     0      420.6158801        2.00000000    0.00000000
                                                     1      109.4417815       73.88856250    0.00000000
                                                     2       34.1714280      326.67298720    0.00000000
                                                     2        5.9879750      126.58145910    0.00000000
                                      D - G
                                                     0      219.2666158        3.00000000    0.00000000
                                                     1      122.7297786       55.67931490    0.00000000
                                                     2       63.1063369      449.19873350    0.00000000
                                                     2       18.3684520      215.02690910    0.00000000
                                                     2        4.4972844       64.08409950    0.00000000
                                      F - G
                                                     0      108.5506037        4.00000000    0.00000000
                                                     1       56.4795527       51.80653350    0.00000000
                                                     2       29.2069159      231.21831130    0.00000000
                                                     2        9.5440543      119.00473860    0.00000000
                                                     2        2.8965118       15.34241880    0.00000000
    3         79           19
                                      G and up 
                                                     1      622.6287956      -60.00000000    0.00000000
                                                     2      136.2843607     -555.52923120    0.00000000
                                                     2       33.1549781     -168.00197850    0.00000000
                                                     2        9.9894895      -63.03998750    0.00000000
                                                     2        3.0481312       -4.25166810    0.00000000
                                      S - G
                                                     0      194.7374304        3.00000000    0.00000000
                                                     1      351.5327447       38.60208800    0.00000000
                                                     2      122.3270402      864.83707270    0.00000000
                                                     2       32.0914617      374.99355200    0.00000000
                                                     2        5.2451812      289.79101000    0.00000000
                                                     2        4.4916223     -152.45327730    0.00000000
                                      P - G
                                                     0      420.6158801        2.00000000    0.00000000
                                                     1      109.4417815       73.88856250    0.00000000
                                                     2       34.1714280      326.67298720    0.00000000
                                                     2        5.9879750      126.58145910    0.00000000
                                      D - G
                                                     0      219.2666158        3.00000000    0.00000000
                                                     1      122.7297786       55.67931490    0.00000000
                                                     2       63.1063369      449.19873350    0.00000000
                                                     2       18.3684520      215.02690910    0.00000000
                                                     2        4.4972844       64.08409950    0.00000000
                                      F - G
                                                     0      108.5506037        4.00000000    0.00000000
                                                     1       56.4795527       51.80653350    0.00000000
                                                     2       29.2069159      231.21831130    0.00000000
                                                     2        9.5440543      119.00473860    0.00000000
                                                     2        2.8965118       15.34241880    0.00000000
    4         79           19
                                      G and up 
                                                     1      622.6287956      -60.00000000    0.00000000
                                                     2      136.2843607     -555.52923120    0.00000000
                                                     2       33.1549781     -168.00197850    0.00000000
                                                     2        9.9894895      -63.03998750    0.00000000
                                                     2        3.0481312       -4.25166810    0.00000000
                                      S - G
                                                     0      194.7374304        3.00000000    0.00000000
                                                     1      351.5327447       38.60208800    0.00000000
                                                     2      122.3270402      864.83707270    0.00000000
                                                     2       32.0914617      374.99355200    0.00000000
                                                     2        5.2451812      289.79101000    0.00000000
                                                     2        4.4916223     -152.45327730    0.00000000
                                      P - G
                                                     0      420.6158801        2.00000000    0.00000000
                                                     1      109.4417815       73.88856250    0.00000000
                                                     2       34.1714280      326.67298720    0.00000000
                                                     2        5.9879750      126.58145910    0.00000000
                                      D - G
                                                     0      219.2666158        3.00000000    0.00000000
                                                     1      122.7297786       55.67931490    0.00000000
                                                     2       63.1063369      449.19873350    0.00000000
                                                     2       18.3684520      215.02690910    0.00000000
                                                     2        4.4972844       64.08409950    0.00000000
                                      F - G
                                                     0      108.5506037        4.00000000    0.00000000
                                                     1       56.4795527       51.80653350    0.00000000
                                                     2       29.2069159      231.21831130    0.00000000
                                                     2        9.5440543      119.00473860    0.00000000
                                                     2        2.8965118       15.34241880    0.00000000
    5         79           19
                                      G and up 
                                                     1      622.6287956      -60.00000000    0.00000000
                                                     2      136.2843607     -555.52923120    0.00000000
                                                     2       33.1549781     -168.00197850    0.00000000
                                                     2        9.9894895      -63.03998750    0.00000000
                                                     2        3.0481312       -4.25166810    0.00000000
                                      S - G
                                                     0      194.7374304        3.00000000    0.00000000
                                                     1      351.5327447       38.60208800    0.00000000
                                                     2      122.3270402      864.83707270    0.00000000
                                                     2       32.0914617      374.99355200    0.00000000
                                                     2        5.2451812      289.79101000    0.00000000
                                                     2        4.4916223     -152.45327730    0.00000000
                                      P - G
                                                     0      420.6158801        2.00000000    0.00000000
                                                     1      109.4417815       73.88856250    0.00000000
                                                     2       34.1714280      326.67298720    0.00000000
                                                     2        5.9879750      126.58145910    0.00000000
                                      D - G
                                                     0      219.2666158        3.00000000    0.00000000
                                                     1      122.7297786       55.67931490    0.00000000
                                                     2       63.1063369      449.19873350    0.00000000
                                                     2       18.3684520      215.02690910    0.00000000
                                                     2        4.4972844       64.08409950    0.00000000
                                      F - G
                                                     0      108.5506037        4.00000000    0.00000000
                                                     1       56.4795527       51.80653350    0.00000000
                                                     2       29.2069159      231.21831130    0.00000000
                                                     2        9.5440543      119.00473860    0.00000000
                                                     2        2.8965118       15.34241880    0.00000000
    6         79           19
                                      G and up 
                                                     1      622.6287956      -60.00000000    0.00000000
                                                     2      136.2843607     -555.52923120    0.00000000
                                                     2       33.1549781     -168.00197850    0.00000000
                                                     2        9.9894895      -63.03998750    0.00000000
                                                     2        3.0481312       -4.25166810    0.00000000
                                      S - G
                                                     0      194.7374304        3.00000000    0.00000000
                                                     1      351.5327447       38.60208800    0.00000000
                                                     2      122.3270402      864.83707270    0.00000000
                                                     2       32.0914617      374.99355200    0.00000000
                                                     2        5.2451812      289.79101000    0.00000000
                                                     2        4.4916223     -152.45327730    0.00000000
                                      P - G
                                                     0      420.6158801        2.00000000    0.00000000
                                                     1      109.4417815       73.88856250    0.00000000
                                                     2       34.1714280      326.67298720    0.00000000
                                                     2        5.9879750      126.58145910    0.00000000
                                      D - G
                                                     0      219.2666158        3.00000000    0.00000000
                                                     1      122.7297786       55.67931490    0.00000000
                                                     2       63.1063369      449.19873350    0.00000000
                                                     2       18.3684520      215.02690910    0.00000000
                                                     2        4.4972844       64.08409950    0.00000000
                                      F - G
                                                     0      108.5506037        4.00000000    0.00000000
                                                     1       56.4795527       51.80653350    0.00000000
                                                     2       29.2069159      231.21831130    0.00000000
                                                     2        9.5440543      119.00473860    0.00000000
                                                     2        2.8965118       15.34241880    0.00000000
    7          7
                                   No pseudopotential on this center.
    8          6
                                   No pseudopotential on this center.
    9          6
                                   No pseudopotential on this center.
   10          6
                                   No pseudopotential on this center.
   11          1
                                   No pseudopotential on this center.
   12          6
                                   No pseudopotential on this center.
   13          1
                                   No pseudopotential on this center.
   14          6
                                   No pseudopotential on this center.
   15          1
                                   No pseudopotential on this center.
   16          6
                                   No pseudopotential on this center.
   17          1
                                   No pseudopotential on this center.
   18          6
                                   No pseudopotential on this center.
   19          6
                                   No pseudopotential on this center.
   20          7
[...]
 Alpha virt. eigenvalues --    2.16654   2.17067   2.17206   2.17328   2.17564
 Alpha virt. eigenvalues --    2.17737   2.18016   2.18081   2.18094   2.18292
 Alpha virt. eigenvalues --    2.18427   2.18600   2.18721   2.18812   2.18958
 Alpha virt. eigenvalues --    2.19077   2.19172   2.19371   2.19574   2.19691
 Alpha virt. eigenvalues --    2.19757   2.19966   2.20069   2.20121   2.20271
 Alpha virt. eigenvalues --    2.20372   2.20447   2.20554   2.20727   2.20818
 Alpha virt. eigenvalues --    2.20929   2.21068   2.21118   2.21204   2.21364
 Alpha virt. eigenvalues --    2.21463   2.21655   2.21693   2.21806   2.21982
 Alpha virt. eigenvalues --    2.22099   2.22189   2.22368   2.22635   2.22843
 Alpha virt. eigenvalues --    2.22923   2.22947   2.23076   2.23290   2.23475
 Alpha virt. eigenvalues --    2.23598   2.23740   2.23844   2.23981   2.24489
 Alpha virt. eigenvalues --    2.24919   2.25048   2.25307   2.26058   2.26154
 Alpha virt. eigenvalues --    2.28811   2.32343   2.34586   2.35164   2.37440
 Alpha virt. eigenvalues --    2.38020   2.45913   2.46459   2.46843   2.46859
 Alpha virt. eigenvalues --    2.47316   2.47645   2.47895   2.48067   2.48596
 Alpha virt. eigenvalues --    2.48738   2.48841   2.49141   2.49181   2.49382
 Alpha virt. eigenvalues --    2.49583   2.49818   2.49902   2.50262   2.50535
 Alpha virt. eigenvalues --    2.51092   2.51449   2.51876   2.52032   2.52153
 Alpha virt. eigenvalues --    2.52288   2.52427   2.52562   2.52655   2.52761
 Alpha virt. eigenvalues --    2.52849   2.52944   2.53171   2.53299   2.53388
 Alpha virt. eigenvalues --    2.53508   2.53811   2.53823   2.53911   2.54075
 Alpha virt. eigenvalues --    2.54202   2.54267   2.54701   2.54848   2.55024
 Alpha virt. eigenvalues --    2.55066   2.55127   2.55238   2.55609   2.55807
 Alpha virt. eigenvalues --    2.55942   2.56045   2.56148   2.56410   2.56624
 Alpha virt. eigenvalues --    2.56771   2.57195   2.57354   2.57762   2.59090
 Alpha virt. eigenvalues --    2.59304   2.59404   2.60429   2.60966   2.61412
 Alpha virt. eigenvalues --    2.61775   2.61799   2.62184   2.62341   2.62542
 Alpha virt. eigenvalues --    2.62720   2.62802   2.62861   2.62952   2.63182
 Alpha virt. eigenvalues --    2.63336   2.63528   2.63609   2.63642   2.63816
 Alpha virt. eigenvalues --    2.63960   2.64140   2.64264   2.64348   2.64606
 Alpha virt. eigenvalues --    2.64671   2.64799   2.64876   2.64974   2.65119
 Alpha virt. eigenvalues --    2.65280   2.65341   2.65382   2.65537   2.65653
 Alpha virt. eigenvalues --    2.65814   2.65999   2.66262   2.66417   2.66609
 Alpha virt. eigenvalues --    2.66717   2.66855   2.67149   2.67235   2.67380
 Alpha virt. eigenvalues --    2.67893   2.67954   2.68197   2.68226   2.68413
 Alpha virt. eigenvalues --    2.68691   2.68840   2.69242   2.69610   2.69854
 Alpha virt. eigenvalues --    2.70055   2.70333   2.70424   2.70627   2.71510
 Alpha virt. eigenvalues --    2.72146   2.72224   2.72665   2.73058   2.73338
 Alpha virt. eigenvalues --    2.73458   2.73629   2.73727   2.73775   2.74105
 Alpha virt. eigenvalues --    2.74303   2.74509   2.74639   2.74692   2.74785
 Alpha virt. eigenvalues --    2.74865   2.74930   2.75150   2.75239   2.75273
 Alpha virt. eigenvalues --    2.75348   2.75650   2.75757   2.75982   2.76146
 Alpha virt. eigenvalues --    2.76201   2.76409   2.76692   2.76856   2.76886
 Alpha virt. eigenvalues --    2.77271   2.77379   2.77557   2.77829   2.78020
 Alpha virt. eigenvalues --    2.78280   2.78692   2.78889   2.79048   2.79166
 Alpha virt. eigenvalues --    2.80637   2.83002   2.84025   2.86392   2.87619
 Alpha virt. eigenvalues --    2.89764   2.90220   2.90348   2.90948   2.91184
 Alpha virt. eigenvalues --    2.91617   2.92047   2.92083   2.92417   2.92446
 Alpha virt. eigenvalues --    2.92504   2.92634   2.92862   2.92880   2.93434
 Alpha virt. eigenvalues --    2.93792   2.94081   2.94532   2.97866   2.99797
 Alpha virt. eigenvalues --    3.03093   3.06067   3.15069   3.38562   3.39962
 Alpha virt. eigenvalues --    3.41082   3.41839   3.42491   3.42969   3.43236
 Alpha virt. eigenvalues --    3.43531   3.44155   3.44538   3.44838   3.45092
 Alpha virt. eigenvalues --    3.45386   3.45504   3.45624   3.47362   3.47551
 Alpha virt. eigenvalues --    3.47732   3.48618   3.54106   9.27699  12.00824
 Alpha virt. eigenvalues --   13.54770  14.72655  17.09538  18.94666
          Condensed to atoms (all electrons):
 Mulliken charges:
               1
     1  Au  -0.359928
     2  Au  -0.105968
     3  Au   0.124002
     4  Au  -0.262359
     5  Au  -0.048708
     6  Au  -0.255811
     7  N   -1.019328
     8  C   -0.552475
     9  C    0.427944
    10  C   -0.144424
    11  H    0.141747
    12  C   -0.102876
    13  H    0.104292
    14  C   -0.118539
    15  H    0.105806
    16  C   -0.128379
    17  H    0.136756
    18  C   -0.016680
    19  C    0.352892
    20  N   -0.642714
    21  C    0.111025
    22  C   -0.164285
    23  H    0.116493
    24  C   -0.111860
    25  H    0.099230
    26  C   -0.109481
    27  H    0.097678
    28  C   -0.155018
    29  H    0.093067
    30  C    0.261751
    31  P    0.570485
    32  C   -0.074251
    33  C   -0.125819
    34  H    0.127629
    35  C   -0.079588
    36  H    0.119073
    37  C   -0.098134
    38  H    0.121829
    39  C   -0.078286
    40  H    0.112386
    41  C   -0.141850
    42  H    0.129500
    43  C   -0.103938
    44  C   -0.118492
    45  H    0.125406
    46  C   -0.090997
    47  H    0.128268
    48  C   -0.078642
    49  H    0.117856
    50  C   -0.101832
    51  H    0.123353
    52  C   -0.121760
    53  H    0.159871
    54  C   -0.081256
    55  C   -0.113258
    56  H    0.122542
    57  C   -0.091792
    58  H    0.127130
    59  C   -0.080178
    60  H    0.129521
    61  C   -0.084068
    62  H    0.115754
    63  C   -0.126491
    64  H    0.134904
    65  P    0.584595
    66  C   -0.087313
    67  C   -0.114353
    68  H    0.151674
    69  C   -0.073668
    70  H    0.107811
    71  C   -0.094846
    72  H    0.115774
    73  C   -0.096369
    74  H    0.120159
    75  C   -0.122565
    76  H    0.124974
    77  C   -0.095045
    78  C   -0.144931
    79  H    0.170719
    80  C   -0.079193
    81  H    0.113924
    82  C   -0.083261
    83  H    0.114361
    84  C   -0.095873
    85  H    0.126123
    86  C   -0.128583
    87  H    0.131919
    88  C   -0.092713
    89  C   -0.111423
    90  H    0.129771
    91  C   -0.082849
    92  H    0.123625
    93  C   -0.102874
    94  H    0.128623
    95  C   -0.097652
    96  H    0.120745
    97  C   -0.110667
    98  H    0.147714
    99  P    0.638854
   100  C   -0.107016
   101  C   -0.110388
   102  H    0.137031
   103  C   -0.090394
   104  H    0.127632
   105  C   -0.097858
   106  H    0.127029
   107  C   -0.113466
   108  H    0.120828
   109  C   -0.128485
   110  H    0.160098
   111  C   -0.101309
   112  C   -0.142555
   113  H    0.131668
   114  C   -0.082841
   115  H    0.121335
   116  C   -0.104965
   117  H    0.114188
   118  C   -0.061054
   119  H    0.110021
   120  C   -0.111737
   121  H    0.155687
   122  C   -0.101065
   123  C   -0.119394
   124  H    0.139721
   125  C   -0.085290
   126  H    0.122735
   127  C   -0.091478
   128  H    0.123945
   129  C   -0.102666
   130  H    0.120509
   131  C   -0.113535
   132  H    0.151698
   133  P    0.525060
   134  C    0.001753
   135  C   -0.179774
   136  H    0.127140
   137  C   -0.083022
   138  H    0.107677
   139  C   -0.090366
   140  H    0.122234
   141  C   -0.046580
   142  H    0.120032
   143  C   -0.162907
   144  H    0.119896
   145  C   -0.075275
   146  C   -0.147534
   147  H    0.127727
   148  C   -0.061365
   149  H    0.125804
   150  C   -0.110178
   151  H    0.122584
   152  C   -0.075422
   153  H    0.112950
   154  C   -0.136394
   155  H    0.151655
   156  C   -0.077751
   157  C   -0.112573
   158  H    0.115328
   159  C   -0.101128
   160  H    0.111503
   161  C   -0.067055
   162  H    0.125739
   163  C   -0.089915
   164  H    0.126032
   165  C   -0.130532
   166  H    0.126254
   167  P    0.570310
   168  C   -0.071316
   169  C   -0.126407
   170  H    0.121204
   171  C   -0.077565
   172  H    0.116332
   173  C   -0.102506
   174  H    0.121988
   175  C   -0.093321
   176  H    0.116985
   177  C   -0.132160
   178  H    0.150664
   179  C   -0.052257
   180  C   -0.125072
   181  H    0.122747
   182  C   -0.072846
   183  H    0.121467
   184  C   -0.105349
   185  H    0.126097
   186  C   -0.077036
   187  H    0.115704
   188  C   -0.149977
   189  H    0.140294
   190  C   -0.107186
   191  C   -0.120963
   192  H    0.130932
   193  C   -0.090621
   194  H    0.126730
   195  C   -0.099727
   196  H    0.128781
   197  C   -0.097859
   198  H    0.121525
   199  C   -0.107601
   200  H    0.153993
   201  P    0.552529
   202  C   -0.088195
   203  C   -0.104404
   204  H    0.111648
   205  C   -0.084937
   206  H    0.115561
   207  C   -0.092302
   208  H    0.124850
   209  C   -0.072894
   210  H    0.117201
   211  C   -0.138047
   212  H    0.145975
   213  C   -0.065370
   214  C   -0.125800
   215  H    0.173009
   216  C   -0.095113
   217  H    0.134352
   218  C   -0.116009
   219  H    0.124036
   220  C   -0.085001
   221  H    0.131200
   222  C   -0.129892
   223  H    0.128820
   224  C   -0.067808
   225  C   -0.119655
   226  H    0.142202
   227  C   -0.086586
   228  H    0.112425
   229  C   -0.096000
   230  H    0.124684
   231  C   -0.073276
   232  H    0.124561
   233  C   -0.129192
   234  H    0.125306
 Sum of Mulliken charges =   2.00000
 Mulliken charges with hydrogens summed into heavy atoms:
               1
     1  Au  -0.359928
     2  Au  -0.105968
     3  Au   0.124002
     4  Au  -0.262359
     5  Au  -0.048708
     6  Au  -0.255811
     7  N   -1.019328
     8  C   -0.552475
     9  C    0.427944
    10  C   -0.002677
    12  C    0.001417
    14  C   -0.012733
    16  C    0.008377
    18  C   -0.016680
    19  C    0.352892
    20  N   -0.642714
    21  C    0.111025
    22  C   -0.047792
    24  C   -0.012630
    26  C   -0.011803
    28  C   -0.061951
    30  C    0.261751
    31  P    0.570485
    32  C   -0.074251
    33  C    0.001810
    35  C    0.039485
    37  C    0.023694
    39  C    0.034101
    41  C   -0.012349
    43  C   -0.103938
    44  C    0.006914
    46  C    0.037272
    48  C    0.039214
    50  C    0.021521
    52  C    0.038112
    54  C   -0.081256
    55  C    0.009284
    57  C    0.035338
    59  C    0.049343
    61  C    0.031686
    63  C    0.008413
    65  P    0.584595
    66  C   -0.087313
    67  C    0.037321
    69  C    0.034142
    71  C    0.020928
    73  C    0.023790
    75  C    0.002408
    77  C   -0.095045
    78  C    0.025788
    80  C    0.034731
    82  C    0.031100
    84  C    0.030250
    86  C    0.003336
    88  C   -0.092713
    89  C    0.018348
    91  C    0.040776
    93  C    0.025749
    95  C    0.023092
    97  C    0.037046
    99  P    0.638854
   100  C   -0.107016
   101  C    0.026644
   103  C    0.037238
   105  C    0.029171
   107  C    0.007362
   109  C    0.031613
   111  C   -0.101309
   112  C   -0.010887
   114  C    0.038495
   116  C    0.009223
   118  C    0.048967
   120  C    0.043951
   122  C   -0.101065
   123  C    0.020328
   125  C    0.037445
   127  C    0.032467
   129  C    0.017843
   131  C    0.038163
   133  P    0.525060
   134  C    0.001753
   135  C   -0.052634
   137  C    0.024655
   139  C    0.031868
   141  C    0.073452
   143  C   -0.043011
   145  C   -0.075275
   146  C   -0.019807
   148  C    0.064439
   150  C    0.012406
   152  C    0.037528
   154  C    0.015261
   156  C   -0.077751
   157  C    0.002755
   159  C    0.010375
   161  C    0.058684
   163  C    0.036117
   165  C   -0.004278
   167  P    0.570310
   168  C   -0.071316
   169  C   -0.005202
   171  C    0.038768
   173  C    0.019482
   175  C    0.023665
   177  C    0.018504
   179  C   -0.052257
   180  C   -0.002325
   182  C    0.048620
   184  C    0.020749
   186  C    0.038667
   188  C   -0.009682
   190  C   -0.107186
   191  C    0.009969
   193  C    0.036108
   195  C    0.029054
   197  C    0.023665
   199  C    0.046392
   201  P    0.552529
   202  C   -0.088195
   203  C    0.007243
   205  C    0.030624
   207  C    0.032548
   209  C    0.044307
   211  C    0.007928
   213  C   -0.065370
   214  C    0.047210
   216  C    0.039239
   218  C    0.008028
   220  C    0.046198
   222  C   -0.001072
   224  C   -0.067808
   225  C    0.022546
   227  C    0.025838
   229  C    0.028684
   231  C    0.051284
   233  C   -0.003886
 Electronic spatial extent (au):  <R**2>=         151689.1289
 Charge=              2.0000 electrons
 Dipole moment (field-independent basis, Debye):
    X=             -3.7218    Y=             -1.9839    Z=             -3.4901  Tot=              5.4743
 Quadrupole moment (field-independent basis, Debye-Ang):
   XX=           -570.8231   YY=           -647.9085   ZZ=           -723.4550
   XY=            -10.6339   XZ=             -4.8019   YZ=             -7.1854
 Traceless Quadrupole moment (field-independent basis, Debye-Ang):
   XX=             76.5724   YY=             -0.5130   ZZ=            -76.0594
   XY=            -10.6339   XZ=             -4.8019   YZ=             -7.1854
 Octapole moment (field-independent basis, Debye-Ang**2):
  XXX=            524.2684  YYY=            115.4105  ZZZ=            113.9687  XYY=           -125.6698
  XXY=            219.8264  XXZ=            -47.8141  XZZ=            -99.9755  YZZ=            -61.5644
  YYZ=            -79.4491  XYZ=            -91.4532
 Hexadecapole moment (field-independent basis, Debye-Ang**3):
 XXXX=         -75775.6755 YYYY=         -56132.6770 ZZZZ=         -38683.2972 XXXY=            234.1922
 XXXZ=           1325.8368 YYYX=            574.8193 YYYZ=           -681.1073 ZZZX=            482.9216
 ZZZY=            766.5465 XXYY=         -22709.4145 XXZZ=         -19898.4664 YYZZ=         -16872.6924
 XXYZ=            344.0214 YYXZ=           -202.3180 ZZXY=           -319.9584
 N-N= 4.265955327339D+04 E-N=-1.029303017382D+05  KE= 7.119623008608D+03
 Leave Link  601 at Tue Aug 28 07:11:29 2018, MaxMem= 12266797568 cpu:        61.7
 (Enter /home/scicons/Gaussian09.D01/l9999.exe)
 1\1\GINC-CU17\SP\RB3LYP TD-FC\GenECP\C122H98Au6N2P6(2+)\SKY\28-Aug-201
 8\0\\#p geom=connectivity pop=always b3lyp/genecp td=(nstates=30)\\Gen
 erated by Christina\\2,1\Au,0,15.88,3.83,13.18\Au,0,17.97,5.61,12.69\A
 u,0,19.69,5.55,10.31\Au,0,18.86,7.79,8.16\Au,0,19.02,4.91,7.49\Au,0,16
 .57,2.83,7.81\N,0,18.13,6.09,9.02\C,0,17.52,3.73,11.81\C,0,16.73,6.04,
 9.24\C,0,15.85,7.03,8.79\H,0,16.2,7.76,8.34\C,0,14.52,6.97,8.99\H,0,13
 .98,7.64,8.65\C,0,13.93,5.9,9.7\H,0,13.01,5.85,9.82\C,0,14.78,4.94,10.
 2\H,0,14.41,4.24,10.69\C,0,16.15,4.96,10.\C,0,17.,3.87,10.53\N,0,17.38
 ,2.87,9.71\C,0,18.3,2.5,11.75\C,0,19.05,1.78,12.66\H,0,19.17,2.1,13.53
 \C,0,19.61,0.58,12.26\H,0,20.09,0.07,12.87\C,0,19.47,0.1,10.95\H,0,19.
 87,-0.7,10.71\C,0,18.76,0.83,10.02\H,0,18.68,0.53,9.14\C,0,18.16,2.,10
 .43\P,0,13.96,3.74,14.36\C,0,13.31,5.34,14.9\C,0,13.13,5.66,16.26\H,0,
 13.29,5.02,16.92\C,0,12.71,6.91,16.61\H,0,12.61,7.13,17.51\C,0,12.43,7
 .87,15.67\H,0,12.11,8.7,15.94\C,0,12.61,7.6,14.33\H,0,12.44,8.25,13.69
 \C,0,13.05,6.34,13.94\H,0,13.17,6.16,13.03\C,0,12.65,3.,13.33\C,0,11.3
 ,3.31,13.47\H,0,11.04,3.96,14.07\C,0,10.36,2.64,12.7\H,0,9.45,2.82,12.
 82\C,0,10.73,1.72,11.79\H,0,10.1,1.31,11.26\C,0,12.06,1.41,11.63\H,0,1
 2.31,0.76,11.01\C,0,13.04,2.03,12.39\H,0,13.93,1.82,12.27\C,0,14.08,2.
 72,15.83\C,0,13.01,1.95,16.31\H,0,12.17,2.01,15.9\C,0,13.19,1.12,17.39
 \H,0,12.48,0.59,17.68\C,0,14.41,1.06,18.05\H,0,14.52,0.5,18.79\C,0,15.
 42,1.82,17.63\H,0,16.24,1.79,18.07\C,0,15.29,2.66,16.52\H,0,16.01,3.18
 ,16.25\P,0,17.97,7.66,13.66\C,0,16.92,8.82,12.73\C,0,15.69,8.36,12.21\
 H,0,15.45,7.47,12.31\C,0,14.87,9.23,11.54\H,0,14.05,8.92,11.23\C,0,15.
 22,10.5,11.33\H,0,14.67,11.06,10.84\C,0,16.4,10.98,11.84\H,0,16.63,11.
 88,11.72\C,0,17.25,10.14,12.52\H,0,18.05,10.46,12.85\C,0,19.56,8.57,13
 .83\C,0,20.35,8.66,12.72\H,0,20.09,8.24,11.93\C,0,21.56,9.38,12.79\H,0
 ,22.12,9.43,12.05\C,0,21.9,10.01,13.95\H,0,22.68,10.5,13.99\C,0,21.11,
 9.91,15.04\H,0,21.36,10.34,15.83\C,0,19.91,9.17,15.01\H,0,19.38,9.08,1
 5.77\C,0,17.24,7.54,15.34\C,0,16.35,8.51,15.81\H,0,16.09,9.22,15.27\C,
 0,15.85,8.39,17.11\H,0,15.28,9.04,17.45\C,0,16.21,7.31,17.91\H,0,15.87
 ,7.22,18.77\C,0,17.13,6.31,17.38\H,0,17.42,5.6,17.91\C,0,17.56,6.43,16
 .11\H,0,18.09,5.76,15.74\P,0,21.66,5.01,11.27\C,0,22.86,6.37,11.25\C,0
 ,23.8,6.55,12.27\H,0,23.77,6.01,13.03\C,0,24.76,7.53,12.14\H,0,25.35,7
 .68,12.84\C,0,24.86,8.27,10.99\H,0,25.53,8.91,10.9\C,0,23.95,8.08,9.97
 \H,0,24.02,8.59,9.19\C,0,22.94,7.13,10.09\H,0,22.33,7.01,9.4\C,0,22.52
 ,3.67,10.36\C,0,23.89,3.68,10.14\H,0,24.41,4.41,10.41\C,0,24.5,2.6,9.5
 \H,0,25.41,2.59,9.33\C,0,23.7,1.53,9.12\H,0,24.1,0.8,8.72\C,0,22.36,1.
 52,9.31\H,0,21.86,0.79,9.03\C,0,21.75,2.61,9.94\H,0,20.83,2.62,10.06\C
 ,0,21.67,4.42,12.99\C,0,22.25,3.2,13.33\H,0,22.64,2.67,12.67\C,0,22.25
 ,2.79,14.67\H,0,22.65,1.99,14.9\C,0,21.68,3.56,15.64\H,0,21.68,3.27,16
 .52\C,0,21.08,4.79,15.31\H,0,20.69,5.31,15.97\C,0,21.09,5.22,13.98\H,0
 ,20.72,6.05,13.76\P,0,19.39,9.71,7.14\C,0,20.14,9.52,5.5\C,0,19.77,8.6
 1,4.71\H,0,19.17,7.97,5.03\C,0,20.19,8.47,3.35\H,0,19.83,7.83,2.79\C,0
 ,21.19,9.34,2.96\H,0,21.58,9.24,2.12\C,0,21.56,10.23,3.7\H,0,22.16,10.
 85,3.35\C,0,21.14,10.37,5.\H,0,21.51,11.02,5.55\C,0,17.79,10.56,6.81\C
 ,0,17.35,10.84,5.53\H,0,17.9,10.63,4.81\C,0,16.13,11.42,5.32\H,0,15.82
 ,11.61,4.46\C,0,15.39,11.69,6.42\H,0,14.53,12.02,6.3\C,0,15.81,11.52,7
 .7\H,0,15.29,11.81,8.41\C,0,17.05,10.91,7.92\H,0,17.35,10.74,8.78\C,0,
 20.38,10.88,8.1\C,0,21.48,10.44,8.83\H,0,21.72,9.55,8.79\C,0,22.21,11.
 33,9.55\H,0,22.92,11.,10.07\C,0,21.97,12.65,9.59\H,0,22.52,13.23,10.06
 \C,0,20.89,13.1,8.9\H,0,20.66,14.,8.93\C,0,20.11,12.23,8.15\H,0,19.39,
 12.56,7.67\P,0,20.33,4.08,5.86\C,0,21.87,5.05,5.88\C,0,22.15,5.98,4.89
 \H,0,21.56,6.1,4.18\C,0,23.31,6.74,4.96\H,0,23.5,7.36,4.3\C,0,24.19,6.
 57,6.02\H,0,24.97,7.07,6.07\C,0,23.91,5.64,7.01\H,0,24.5,5.52,7.72\C,0
 ,22.75,4.88,6.94\H,0,22.56,4.25,7.61\C,0,19.64,4.23,4.2\C,0,20.02,3.43
 ,3.18\H,0,20.63,2.74,3.33\C,0,19.52,3.62,1.9\H,0,19.78,3.04,1.22\C,0,1
 8.69,4.61,1.63\H,0,18.44,4.78,0.75\C,0,18.18,5.38,2.65\H,0,17.5,5.99,2
 .49\C,0,18.71,5.22,3.9\H,0,18.43,5.79,4.58\C,0,20.82,2.35,6.06\C,0,22.
 12,1.89,5.77\H,0,22.77,2.49,5.48\C,0,22.41,0.57,5.91\H,0,23.27,0.27,5.
 7\C,0,21.48,-0.34,6.36\H,0,21.72,-1.23,6.49\C,0,20.2,0.09,6.6\H,0,19.5
 4,-0.52,6.86\C,0,19.88,1.41,6.48\H,0,19.02,1.69,6.67\P,0,15.41,2.77,5.
 89\C,0,16.26,1.81,4.62\C,0,16.33,2.24,3.29\H,0,15.9,3.01,3.02\C,0,17.0
 6,1.48,2.38\H,0,17.14,1.76,1.5\C,0,17.68,0.3,2.79\H,0,18.16,-0.21,2.18
 \C,0,17.59,-0.12,4.06\H,0,18.01,-0.9,4.32\C,0,16.85,0.62,5.\H,0,16.77,
 0.31,5.87\C,0,15.05,4.4,5.18\C,0,15.74,5.5,5.63\H,0,16.32,5.41,6.35\C,
 0,15.56,6.76,5.02\H,0,16.05,7.49,5.31\C,0,14.67,6.88,3.99\H,0,14.57,7.
 71,3.57\C,0,13.89,5.78,3.56\H,0,13.25,5.88,2.89\C,0,14.12,4.54,4.17\H,
 0,13.64,3.8,3.88\C,0,13.83,1.94,6.19\C,0,13.12,2.23,7.37\H,0,13.44,2.8
 8,7.95\C,0,12.,1.58,7.69\H,0,11.54,1.78,8.47\C,0,11.51,0.55,6.81\H,0,1
 0.77,0.05,7.05\C,0,12.14,0.32,5.64\H,0,11.8,-0.3,5.05\C,0,13.31,1.,5.3
 1\H,0,13.73,0.83,4.5\\Version=ES64L-G09RevD.01\State=1-A\HF=-7675.9052
 182\RMSD=2.362e-09\PG=C01 [X(C122H98Au6N2P6)]\\@


 A true friend is someone who is there for
 you when he'd rather be anywhere else.
                               -- Len Wein
 Job cpu time:       9 days  2 hours 29 minutes 49.6 seconds.
 File lengths (MBytes):  RWF=  36417 Int=      0 D2E=      0 Chk=   5144 Scr=      1
 Normal termination of Gaussian 09 at Tue Aug 28 07:12:50 2018.
